# Variables
CC = gcc
CFLAGS = -Wall -Werror -Wextra -pedantic
SRC = main.c holberton.c
OBJ = (SRC:.c=.o)
NAME = holberton
RM = rm

all: $(OBJ) m.h
	$(CC) $(CFLAGS) $(SRC) -o $(NAME)

# Deletes all Emacs and Vim temporary files along with the executable
clean:
	$(RM) -f *~ $(NAME)

# Deletes the object files
oclean:
	$(RM) -f $(OBJ)

# Deletes all Emacs and Vim temporary files, the executable, and the object files
fclean: clean oclean

# Forces recompilation of all source files
re: oclean all
